LAMMPS (10 Feb 2021)
OMP_NUM_THREADS environment is not set. Defaulting to 1 thread. (src/comm.cpp:94)
  using 1 OpenMP thread(s) per MPI task
Reading data file ...
  orthogonal box = (-27.500000 -38.500000 -36.364600) to (27.500000 38.500000 36.361500)
  1 by 2 by 1 MPI processor grid
  reading atoms ...
  32000 atoms
  reading velocities ...
  32000 velocities
  scanning bonds ...
  4 = max bonds/atom
  scanning angles ...
  8 = max angles/atom
  scanning dihedrals ...
  18 = max dihedrals/atom
  scanning impropers ...
  2 = max impropers/atom
  reading bonds ...
  27723 bonds
  reading angles ...
  40467 angles
  reading dihedrals ...
  56829 dihedrals
  reading impropers ...
  1034 impropers
Finding 1-2 1-3 1-4 neighbors ...
  special bond factors lj:    0        0        0       
  special bond factors coul:  0        0        0       
     4 = max # of 1-2 neighbors
    12 = max # of 1-3 neighbors
    24 = max # of 1-4 neighbors
    26 = max # of special neighbors
  special bonds CPU = 0.011 seconds
  read_data CPU = 0.694 seconds
Finding SHAKE clusters ...
    1617 = # of size 2 clusters
    3633 = # of size 3 clusters
     747 = # of size 4 clusters
    4233 = # of frozen angles
  find clusters CPU = 0.005 seconds
PPPM initialization ...
  using 12-bit tables for long-range coulomb (src/kspace.cpp:339)
  G vector (1/distance) = 0.24883488
  grid = 25 32 32
  stencil order = 5
  estimated absolute RMS force accuracy = 0.035547797
  estimated relative force accuracy = 0.00010705113
  using double precision KISS FFT
  3d grid and FFT values/proc = 23310 12800
Neighbor list info ...
  update every 1 steps, delay 5 steps, check yes
  max neighbors/atom: 2000, page size: 100000
  master list distance cutoff = 12
  ghost atom cutoff = 12
  binsize = 6, bins = 10 13 13
  1 neighbor lists, perpetual/occasional/extra = 1 0 0
  (1) pair lj/charmm/coul/long, perpetual
      attributes: half, newton on
      pair build: half/bin/newton
      stencil: half/bin/3d/newton
      bin: standard
Setting up Verlet run ...
  Unit style    : real
  Current step  : 0
  Time step     : 2
Per MPI rank memory allocation (min/avg/max) = 96.75 | 96.94 | 97.14 Mbytes
---------------- Step        0 ----- CPU =      0.0000 (sec) ----------------
TotEng   =    -25356.2064 KinEng   =     21444.8313 Temp     =       299.0397 
PotEng   =    -46801.0377 E_bond   =      2537.9940 E_angle  =     10921.3742 
E_dihed  =      5211.7865 E_impro  =       213.5116 E_vdwl   =     -2307.8634 
E_coul   =    207025.8927 E_long   =   -270403.7333 Press    =      -149.3301 
Volume   =    307995.0335 
---------------- Step       50 ----- CPU =      7.8172 (sec) ----------------
TotEng   =    -25330.0317 KinEng   =     21501.0005 Temp     =       299.8229 
PotEng   =    -46831.0321 E_bond   =      2471.7035 E_angle  =     10836.5102 
E_dihed  =      5239.6319 E_impro  =       227.1218 E_vdwl   =     -1993.2873 
E_coul   =    206797.6802 E_long   =   -270410.3926 Press    =       237.6571 
Volume   =    308031.6762 
---------------- Step      100 ----- CPU =     16.0579 (sec) ----------------
TotEng   =    -25290.7302 KinEng   =     21591.9084 Temp     =       301.0906 
PotEng   =    -46882.6386 E_bond   =      2567.9807 E_angle  =     10781.9571 
E_dihed  =      5198.7492 E_impro  =       216.7864 E_vdwl   =     -1902.6618 
E_coul   =    206659.5228 E_long   =   -270404.9730 Press    =         6.7407 
Volume   =    308134.2285 
---------------- Step      150 ----- CPU =     24.6146 (sec) ----------------
TotEng   =    -25258.0785 KinEng   =     21529.6640 Temp     =       300.2226 
PotEng   =    -46787.7425 E_bond   =      2556.3466 E_angle  =     10852.7806 
E_dihed  =      5265.2304 E_impro  =       203.0691 E_vdwl   =     -2066.1359 
E_coul   =    206797.4427 E_long   =   -270396.4760 Press    =       251.4736 
Volume   =    308515.2403 
---------------- Step      200 ----- CPU =     33.0990 (sec) ----------------
TotEng   =    -25078.8487 KinEng   =     21571.3562 Temp     =       300.8040 
PotEng   =    -46650.2049 E_bond   =      2488.6957 E_angle  =     11073.4386 
E_dihed  =      5221.7530 E_impro  =       232.8553 E_vdwl   =     -2167.7436 
E_coul   =    206902.9203 E_long   =   -270402.1241 Press    =        20.6683 
Volume   =    308997.5604 
---------------- Step      250 ----- CPU =     41.4967 (sec) ----------------
TotEng   =    -24944.3590 KinEng   =     21546.5630 Temp     =       300.4583 
PotEng   =    -46490.9220 E_bond   =      2542.5409 E_angle  =     11105.5033 
E_dihed  =      5239.6609 E_impro  =       212.3530 E_vdwl   =     -2169.0725 
E_coul   =    206990.2616 E_long   =   -270412.1693 Press    =      -169.9651 
Volume   =    309388.1028 
---------------- Step      300 ----- CPU =     49.6571 (sec) ----------------
TotEng   =    -24999.4207 KinEng   =     21499.4410 Temp     =       299.8012 
PotEng   =    -46498.8617 E_bond   =      2557.8760 E_angle  =     10921.7914 
E_dihed  =      5211.0898 E_impro  =       222.1833 E_vdwl   =     -2220.7191 
E_coul   =    207195.7306 E_long   =   -270386.8137 Press    =      -370.8161 
Volume   =    309663.8078 
---------------- Step      350 ----- CPU =     57.9866 (sec) ----------------
TotEng   =    -25127.9332 KinEng   =     21464.9102 Temp     =       299.3197 
PotEng   =    -46592.8433 E_bond   =      2580.3610 E_angle  =     10952.3368 
E_dihed  =      5250.5212 E_impro  =       212.6554 E_vdwl   =     -2165.1202 
E_coul   =    206978.3405 E_long   =   -270401.9379 Press    =      -337.2797 
Volume   =    309801.8150 
---------------- Step      400 ----- CPU =     66.3883 (sec) ----------------
TotEng   =    -25201.0128 KinEng   =     21424.1067 Temp     =       298.7507 
PotEng   =    -46625.1195 E_bond   =      2525.9367 E_angle  =     10966.9921 
E_dihed  =      5205.9909 E_impro  =       212.5856 E_vdwl   =     -2115.9733 
E_coul   =    206991.6170 E_long   =   -270412.2685 Press    =       249.5010 
Volume   =    309816.5610 
---------------- Step      450 ----- CPU =     74.8474 (sec) ----------------
TotEng   =    -25148.4851 KinEng   =     21454.8202 Temp     =       299.1790 
PotEng   =    -46603.3053 E_bond   =      2501.0200 E_angle  =     10965.2747 
E_dihed  =      5240.8908 E_impro  =       226.1451 E_vdwl   =     -2231.7420 
E_coul   =    207091.5512 E_long   =   -270396.4451 Press    =       182.7906 
Volume   =    309791.9042 
---------------- Step      500 ----- CPU =     83.1321 (sec) ----------------
TotEng   =    -24960.2892 KinEng   =     21625.9371 Temp     =       301.5651 
PotEng   =    -46586.2264 E_bond   =      2566.7168 E_angle  =     10945.0277 
E_dihed  =      5268.0720 E_impro  =       217.6702 E_vdwl   =     -2218.4642 
E_coul   =    207026.8227 E_long   =   -270392.0716 Press    =      -311.4000 
Volume   =    309753.7820 
---------------- Step      550 ----- CPU =     91.7739 (sec) ----------------
TotEng   =    -24894.4964 KinEng   =     21659.7651 Temp     =       302.0368 
PotEng   =    -46554.2616 E_bond   =      2513.7749 E_angle  =     10927.5725 
E_dihed  =      5203.1870 E_impro  =       222.8035 E_vdwl   =     -1972.5531 
E_coul   =    206951.9144 E_long   =   -270400.9608 Press    =       413.1186 
Volume   =    309671.9877 
---------------- Step      600 ----- CPU =    100.0784 (sec) ----------------
TotEng   =    -24991.1306 KinEng   =     21634.9565 Temp     =       301.6909 
PotEng   =    -46626.0872 E_bond   =      2585.6015 E_angle  =     10896.0082 
E_dihed  =      5239.0320 E_impro  =       222.9177 E_vdwl   =     -2122.9420 
E_coul   =    206950.1246 E_long   =   -270396.8293 Press    =        86.1307 
Volume   =    309830.7037 
---------------- Step      650 ----- CPU =    108.6300 (sec) ----------------
TotEng   =    -25251.9963 KinEng   =     21412.9017 Temp     =       298.5944 
PotEng   =    -46664.8980 E_bond   =      2532.9431 E_angle  =     10816.6108 
E_dihed  =      5218.0354 E_impro  =       196.9674 E_vdwl   =     -2162.2938 
E_coul   =    207135.6882 E_long   =   -270402.8492 Press    =      -273.8077 
Volume   =    310063.1336 
---------------- Step      700 ----- CPU =    116.9839 (sec) ----------------
TotEng   =    -25258.4809 KinEng   =     21508.7769 Temp     =       299.9314 
PotEng   =    -46767.2578 E_bond   =      2472.3724 E_angle  =     10927.2022 
E_dihed  =      5207.1499 E_impro  =       205.8742 E_vdwl   =     -2194.7722 
E_coul   =    207018.5412 E_long   =   -270403.6255 Press    =       167.2644 
Volume   =    310279.3397 
---------------- Step      750 ----- CPU =    125.7504 (sec) ----------------
TotEng   =    -25088.2252 KinEng   =     21396.5700 Temp     =       298.3667 
PotEng   =    -46484.7952 E_bond   =      2518.6420 E_angle  =     10975.3149 
E_dihed  =      5240.1474 E_impro  =       210.4921 E_vdwl   =     -1931.0717 
E_coul   =    206899.2389 E_long   =   -270397.5590 Press    =       628.0031 
Volume   =    310327.6320 
---------------- Step      800 ----- CPU =    134.1401 (sec) ----------------
TotEng   =    -24954.8039 KinEng   =     21509.6472 Temp     =       299.9435 
PotEng   =    -46464.4511 E_bond   =      2568.3820 E_angle  =     11094.0460 
E_dihed  =      5238.8147 E_impro  =       227.8282 E_vdwl   =     -2125.7928 
E_coul   =    206914.9588 E_long   =   -270382.6880 Press    =      -288.9391 
Volume   =    310393.8841 
---------------- Step      850 ----- CPU =    142.5323 (sec) ----------------
TotEng   =    -24903.3462 KinEng   =     21623.1441 Temp     =       301.5262 
PotEng   =    -46526.4904 E_bond   =      2540.9033 E_angle  =     10925.6437 
E_dihed  =      5289.0890 E_impro  =       220.7567 E_vdwl   =     -2054.6027 
E_coul   =    206946.7960 E_long   =   -270395.0764 Press    =       105.0757 
Volume   =    310267.4871 
---------------- Step      900 ----- CPU =    151.1496 (sec) ----------------
TotEng   =    -24968.0550 KinEng   =     21408.3166 Temp     =       298.5305 
PotEng   =    -46376.3716 E_bond   =      2542.4869 E_angle  =     10981.7679 
E_dihed  =      5256.9661 E_impro  =       219.5457 E_vdwl   =     -2112.4919 
E_coul   =    207142.2826 E_long   =   -270406.9289 Press    =       352.6965 
Volume   =    310060.8091 
---------------- Step      950 ----- CPU =    159.6547 (sec) ----------------
TotEng   =    -24989.0919 KinEng   =     21524.8846 Temp     =       300.1560 
PotEng   =    -46513.9764 E_bond   =      2529.3501 E_angle  =     10947.3916 
E_dihed  =      5292.1640 E_impro  =       228.6294 E_vdwl   =     -2107.3454 
E_coul   =    207005.0650 E_long   =   -270409.2311 Press    =       246.6022 
Volume   =    309869.2189 
---------------- Step     1000 ----- CPU =    168.2894 (sec) ----------------
TotEng   =    -25031.4187 KinEng   =     21496.7504 Temp     =       299.7637 
PotEng   =    -46528.1690 E_bond   =      2567.7061 E_angle  =     11042.9345 
E_dihed  =      5311.8602 E_impro  =       235.1323 E_vdwl   =     -2294.4706 
E_coul   =    207009.6829 E_long   =   -270401.0145 Press    =      -365.2956 
Volume   =    309721.8347 
Loop time of 168.29 on 2 procs for 1000 steps with 32000 atoms

Performance: 1.027 ns/day, 23.374 hours/ns, 5.942 timesteps/s
99.2% CPU use with 2 MPI tasks x 1 OpenMP threads

MPI task timing breakdown:
Section |  min time  |  avg time  |  max time  |%varavg| %total
---------------------------------------------------------------
Pair    | 121.74     | 122.4      | 123.06     |   6.0 | 72.73
Bond    | 5.0559     | 5.2061     | 5.3563     |   6.6 |  3.09
Kspace  | 10.917     | 11.727     | 12.536     |  23.7 |  6.97
Neigh   | 23.574     | 23.577     | 23.58      |   0.1 | 14.01
Comm    | 0.69699    | 0.69849    | 0.69999    |   0.2 |  0.42
Output  | 0.0019485  | 0.0044554  | 0.0069624  |   3.8 |  0.00
Modify  | 4.4686     | 4.473      | 4.4775     |   0.2 |  2.66
Other   |            | 0.2021     |            |       |  0.12

Nlocal:        16000.0 ave       16053 max       15947 min
Histogram: 1 0 0 0 0 0 0 0 0 1
Nghost:        33448.5 ave       33524 max       33373 min
Histogram: 1 0 0 0 0 0 0 0 0 1
Neighs:    5.98337e+06 ave 6.02092e+06 max 5.94582e+06 min
Histogram: 1 0 0 0 0 0 0 0 0 1

Total # of neighbors = 11966745
Ave neighs/atom = 373.96078
Ave special neighs/atom = 7.4318750
Neighbor list builds = 110
Dangerous builds = 0
Total wall time: 0:02:49
