LAMMPS (10 Feb 2021)
OMP_NUM_THREADS environment is not set. Defaulting to 1 thread. (src/comm.cpp:94)
  using 1 OpenMP thread(s) per MPI task
Reading data file ...
  orthogonal box = (-27.500000 -38.500000 -36.364600) to (27.500000 38.500000 36.361500)
  2 by 2 by 2 MPI processor grid
  reading atoms ...
  32000 atoms
  reading velocities ...
  32000 velocities
  scanning bonds ...
  4 = max bonds/atom
  scanning angles ...
  8 = max angles/atom
  scanning dihedrals ...
  18 = max dihedrals/atom
  scanning impropers ...
  2 = max impropers/atom
  reading bonds ...
  27723 bonds
  reading angles ...
  40467 angles
  reading dihedrals ...
  56829 dihedrals
  reading impropers ...
  1034 impropers
Finding 1-2 1-3 1-4 neighbors ...
  special bond factors lj:    0        0        0       
  special bond factors coul:  0        0        0       
     4 = max # of 1-2 neighbors
    12 = max # of 1-3 neighbors
    24 = max # of 1-4 neighbors
    26 = max # of special neighbors
  special bonds CPU = 0.006 seconds
  read_data CPU = 0.758 seconds
Finding SHAKE clusters ...
    1617 = # of size 2 clusters
    3633 = # of size 3 clusters
     747 = # of size 4 clusters
    4233 = # of frozen angles
  find clusters CPU = 0.003 seconds
PPPM initialization ...
  using 12-bit tables for long-range coulomb (src/kspace.cpp:339)
  G vector (1/distance) = 0.24883488
  grid = 25 32 32
  stencil order = 5
  estimated absolute RMS force accuracy = 0.035547797
  estimated relative force accuracy = 0.00010705113
  using double precision KISS FFT
  3d grid and FFT values/proc = 7938 3328
Neighbor list info ...
  update every 1 steps, delay 5 steps, check yes
  max neighbors/atom: 2000, page size: 100000
  master list distance cutoff = 12
  ghost atom cutoff = 12
  binsize = 6, bins = 10 13 13
  1 neighbor lists, perpetual/occasional/extra = 1 0 0
  (1) pair lj/charmm/coul/long, perpetual
      attributes: half, newton on
      pair build: half/bin/newton
      stencil: half/bin/3d/newton
      bin: standard
Setting up Verlet run ...
  Unit style    : real
  Current step  : 0
  Time step     : 2
Per MPI rank memory allocation (min/avg/max) = 41.74 | 42.03 | 42.14 Mbytes
---------------- Step        0 ----- CPU =      0.0000 (sec) ----------------
TotEng   =    -25356.2064 KinEng   =     21444.8313 Temp     =       299.0397 
PotEng   =    -46801.0377 E_bond   =      2537.9940 E_angle  =     10921.3742 
E_dihed  =      5211.7865 E_impro  =       213.5116 E_vdwl   =     -2307.8634 
E_coul   =    207025.8927 E_long   =   -270403.7333 Press    =      -149.3301 
Volume   =    307995.0335 
---------------- Step       50 ----- CPU =      2.8404 (sec) ----------------
TotEng   =    -25330.0317 KinEng   =     21501.0005 Temp     =       299.8229 
PotEng   =    -46831.0321 E_bond   =      2471.7035 E_angle  =     10836.5102 
E_dihed  =      5239.6319 E_impro  =       227.1218 E_vdwl   =     -1993.2873 
E_coul   =    206797.6802 E_long   =   -270410.3926 Press    =       237.6571 
Volume   =    308031.6762 
---------------- Step      100 ----- CPU =      5.8344 (sec) ----------------
TotEng   =    -25290.7303 KinEng   =     21591.9084 Temp     =       301.0906 
PotEng   =    -46882.6387 E_bond   =      2567.9807 E_angle  =     10781.9571 
E_dihed  =      5198.7492 E_impro  =       216.7864 E_vdwl   =     -1902.6618 
E_coul   =    206659.5226 E_long   =   -270404.9730 Press    =         6.7406 
Volume   =    308134.2285 
---------------- Step      150 ----- CPU =      8.7483 (sec) ----------------
TotEng   =    -25258.0783 KinEng   =     21529.6643 Temp     =       300.2226 
PotEng   =    -46787.7426 E_bond   =      2556.3465 E_angle  =     10852.7806 
E_dihed  =      5265.2304 E_impro  =       203.0691 E_vdwl   =     -2066.1357 
E_coul   =    206797.4425 E_long   =   -270396.4760 Press    =       251.4739 
Volume   =    308515.2403 
---------------- Step      200 ----- CPU =     11.7567 (sec) ----------------
TotEng   =    -25078.8483 KinEng   =     21571.3564 Temp     =       300.8040 
PotEng   =    -46650.2047 E_bond   =      2488.6957 E_angle  =     11073.4386 
E_dihed  =      5221.7530 E_impro  =       232.8553 E_vdwl   =     -2167.7440 
E_coul   =    206902.9208 E_long   =   -270402.1241 Press    =        20.6681 
Volume   =    308997.5604 
---------------- Step      250 ----- CPU =     14.7639 (sec) ----------------
TotEng   =    -24944.3544 KinEng   =     21546.5633 Temp     =       300.4583 
PotEng   =    -46490.9177 E_bond   =      2542.5409 E_angle  =     11105.5033 
E_dihed  =      5239.6610 E_impro  =       212.3530 E_vdwl   =     -2169.0732 
E_coul   =    206990.2665 E_long   =   -270412.1693 Press    =      -169.9613 
Volume   =    309388.1027 
---------------- Step      300 ----- CPU =     17.6950 (sec) ----------------
TotEng   =    -24999.4151 KinEng   =     21499.4103 Temp     =       299.8008 
PotEng   =    -46498.8253 E_bond   =      2557.8756 E_angle  =     10921.7918 
E_dihed  =      5211.0899 E_impro  =       222.1832 E_vdwl   =     -2220.7147 
E_coul   =    207195.7623 E_long   =   -270386.8135 Press    =      -370.7995 
Volume   =    309663.8076 
---------------- Step      350 ----- CPU =     20.6288 (sec) ----------------
TotEng   =    -25127.9493 KinEng   =     21464.9262 Temp     =       299.3199 
PotEng   =    -46592.8756 E_bond   =      2580.3607 E_angle  =     10952.3355 
E_dihed  =      5250.5189 E_impro  =       212.6561 E_vdwl   =     -2165.1279 
E_coul   =    206978.3189 E_long   =   -270401.9379 Press    =      -337.3080 
Volume   =    309801.8131 
---------------- Step      400 ----- CPU =     23.7171 (sec) ----------------
TotEng   =    -25200.9761 KinEng   =     21424.0514 Temp     =       298.7499 
PotEng   =    -46625.0275 E_bond   =      2525.9380 E_angle  =     10966.9906 
E_dihed  =      5205.9890 E_impro  =       212.5870 E_vdwl   =     -2116.0086 
E_coul   =    206991.7492 E_long   =   -270412.2726 Press    =       249.4859 
Volume   =    309816.5591 
---------------- Step      450 ----- CPU =     26.8413 (sec) ----------------
TotEng   =    -25148.4350 KinEng   =     21454.6925 Temp     =       299.1772 
PotEng   =    -46603.1275 E_bond   =      2501.0148 E_angle  =     10965.2692 
E_dihed  =      5240.8773 E_impro  =       226.1432 E_vdwl   =     -2231.6950 
E_coul   =    207091.7103 E_long   =   -270396.4473 Press    =       182.9953 
Volume   =    309791.9382 
---------------- Step      500 ----- CPU =     29.8171 (sec) ----------------
TotEng   =    -24960.2034 KinEng   =     21624.6592 Temp     =       301.5473 
PotEng   =    -46584.8626 E_bond   =      2566.7247 E_angle  =     10945.1137 
E_dihed  =      5268.1775 E_impro  =       217.6934 E_vdwl   =     -2218.3051 
E_coul   =    207027.5823 E_long   =   -270391.8490 Press    =      -311.0522 
Volume   =    309754.0627 
---------------- Step      550 ----- CPU =     32.8801 (sec) ----------------
TotEng   =    -24891.9083 KinEng   =     21649.6087 Temp     =       301.8952 
PotEng   =    -46541.5170 E_bond   =      2513.6591 E_angle  =     10927.8507 
E_dihed  =      5203.0168 E_impro  =       222.7863 E_vdwl   =     -1973.3518 
E_coul   =    206963.1129 E_long   =   -270398.5910 Press    =       415.5595 
Volume   =    309672.7934 
---------------- Step      600 ----- CPU =     35.9728 (sec) ----------------
TotEng   =    -24980.4217 KinEng   =     21609.5350 Temp     =       301.3364 
PotEng   =    -46589.9567 E_bond   =      2585.9042 E_angle  =     10901.3825 
E_dihed  =      5238.0588 E_impro  =       223.8923 E_vdwl   =     -2125.7510 
E_coul   =    206984.6699 E_long   =   -270398.1135 Press    =        89.2716 
Volume   =    309829.4712 
---------------- Step      650 ----- CPU =     38.9840 (sec) ----------------
TotEng   =    -25239.7511 KinEng   =     21447.0135 Temp     =       299.0701 
PotEng   =    -46686.7646 E_bond   =      2539.6367 E_angle  =     10802.3758 
E_dihed  =      5222.4007 E_impro  =       196.9741 E_vdwl   =     -2178.1994 
E_coul   =    207134.1113 E_long   =   -270404.0639 Press    =      -270.5402 
Volume   =    310052.9079 
---------------- Step      700 ----- CPU =     42.0509 (sec) ----------------
TotEng   =    -25302.9971 KinEng   =     21474.2396 Temp     =       299.4498 
PotEng   =    -46777.2366 E_bond   =      2464.4707 E_angle  =     10919.2244 
E_dihed  =      5208.7311 E_impro  =       208.0055 E_vdwl   =     -2129.8656 
E_coul   =    206951.4053 E_long   =   -270399.2080 Press    =       225.5672 
Volume   =    310255.3743 
---------------- Step      750 ----- CPU =     45.0429 (sec) ----------------
TotEng   =    -25152.9895 KinEng   =     21396.8506 Temp     =       298.3706 
PotEng   =    -46549.8401 E_bond   =      2519.7712 E_angle  =     11004.2519 
E_dihed  =      5242.5898 E_impro  =       211.2169 E_vdwl   =     -2039.5801 
E_coul   =    206902.7923 E_long   =   -270390.8822 Press    =       483.1668 
Volume   =    310315.9913 
---------------- Step      800 ----- CPU =     48.0555 (sec) ----------------
TotEng   =    -24955.4382 KinEng   =     21541.5014 Temp     =       300.3877 
PotEng   =    -46496.9396 E_bond   =      2607.7368 E_angle  =     11069.1554 
E_dihed  =      5237.6562 E_impro  =       226.5417 E_vdwl   =     -2291.3931 
E_coul   =    207054.0924 E_long   =   -270400.7290 Press    =      -416.9591 
Volume   =    310337.0443 
---------------- Step      850 ----- CPU =     51.0631 (sec) ----------------
TotEng   =    -24702.5904 KinEng   =     21624.6006 Temp     =       301.5465 
PotEng   =    -46327.1910 E_bond   =      2545.8665 E_angle  =     10962.9185 
E_dihed  =      5313.7781 E_impro  =       225.2736 E_vdwl   =     -2020.9341 
E_coul   =    207042.5032 E_long   =   -270396.5968 Press    =       174.0089 
Volume   =    310167.7675 
---------------- Step      900 ----- CPU =     54.1550 (sec) ----------------
TotEng   =    -24575.1084 KinEng   =     21682.8920 Temp     =       302.3593 
PotEng   =    -46258.0003 E_bond   =      2596.4547 E_angle  =     11062.5256 
E_dihed  =      5262.4328 E_impro  =       222.6131 E_vdwl   =     -2027.1833 
E_coul   =    207022.8592 E_long   =   -270397.7024 Press    =       116.5363 
Volume   =    310020.3704 
---------------- Step      950 ----- CPU =     57.2855 (sec) ----------------
TotEng   =    -24783.8198 KinEng   =     21607.4187 Temp     =       301.3069 
PotEng   =    -46391.2385 E_bond   =      2579.6717 E_angle  =     10932.9430 
E_dihed  =      5340.8106 E_impro  =       226.8947 E_vdwl   =     -2029.6174 
E_coul   =    206959.1013 E_long   =   -270401.0424 Press    =       244.1912 
Volume   =    309880.6433 
---------------- Step     1000 ----- CPU =     60.3184 (sec) ----------------
TotEng   =    -25230.3540 KinEng   =     21353.6893 Temp     =       297.7687 
PotEng   =    -46584.0433 E_bond   =      2539.3026 E_angle  =     11007.2054 
E_dihed  =      5285.5778 E_impro  =       211.6872 E_vdwl   =     -2225.7130 
E_coul   =    207009.8236 E_long   =   -270411.9269 Press    =      -174.0023 
Volume   =    309794.0800 
Loop time of 60.3187 on 8 procs for 1000 steps with 32000 atoms

Performance: 2.865 ns/day, 8.378 hours/ns, 16.579 timesteps/s
97.4% CPU use with 8 MPI tasks x 1 OpenMP threads

MPI task timing breakdown:
Section |  min time  |  avg time  |  max time  |%varavg| %total
---------------------------------------------------------------
Pair    | 40.294     | 41.506     | 42.706     |  10.7 | 68.81
Bond    | 1.6878     | 1.8031     | 2.0542     |   9.0 |  2.99
Kspace  | 5.3121     | 6.474      | 7.4378     |  24.6 | 10.73
Neigh   | 7.96       | 7.961      | 7.9624     |   0.0 | 13.20
Comm    | 0.51918    | 0.53785    | 0.55594    |   1.6 |  0.89
Output  | 0.0018528  | 0.0040202  | 0.018945   |   8.9 |  0.01
Modify  | 1.892      | 1.9299     | 1.9397     |   1.0 |  3.20
Other   |            | 0.1031     |            |       |  0.17

Nlocal:        4000.00 ave        4056 max        3958 min
Histogram: 2 0 1 2 0 0 1 1 0 1
Nghost:        16009.2 ave       16055 max       15954 min
Histogram: 1 0 1 1 0 1 2 0 0 2
Neighs:    1.49540e+06 ave 1.53436e+06 max  1.4653e+06 min
Histogram: 2 0 0 1 2 1 1 0 0 1

Total # of neighbors = 11963238
Ave neighs/atom = 373.85119
Ave special neighs/atom = 7.4318750
Neighbor list builds = 109
Dangerous builds = 0
Total wall time: 0:01:01
