LAMMPS (10 Feb 2021)
OMP_NUM_THREADS environment is not set. Defaulting to 1 thread. (src/comm.cpp:94)
  using 1 OpenMP thread(s) per MPI task
Reading data file ...
  orthogonal box = (-27.500000 -38.500000 -36.364600) to (27.500000 38.500000 36.361500)
  2 by 4 by 2 MPI processor grid
  reading atoms ...
  32000 atoms
  reading velocities ...
  32000 velocities
  scanning bonds ...
  4 = max bonds/atom
  scanning angles ...
  8 = max angles/atom
  scanning dihedrals ...
  18 = max dihedrals/atom
  scanning impropers ...
  2 = max impropers/atom
  reading bonds ...
  27723 bonds
  reading angles ...
  40467 angles
  reading dihedrals ...
  56829 dihedrals
  reading impropers ...
  1034 impropers
Finding 1-2 1-3 1-4 neighbors ...
  special bond factors lj:    0        0        0       
  special bond factors coul:  0        0        0       
     4 = max # of 1-2 neighbors
    12 = max # of 1-3 neighbors
    24 = max # of 1-4 neighbors
    26 = max # of special neighbors
  special bonds CPU = 0.004 seconds
  read_data CPU = 0.815 seconds
Finding SHAKE clusters ...
    1617 = # of size 2 clusters
    3633 = # of size 3 clusters
     747 = # of size 4 clusters
    4233 = # of frozen angles
  find clusters CPU = 0.002 seconds
PPPM initialization ...
  using 12-bit tables for long-range coulomb (src/kspace.cpp:339)
  G vector (1/distance) = 0.24883488
  grid = 25 32 32
  stencil order = 5
  estimated absolute RMS force accuracy = 0.035547797
  estimated relative force accuracy = 0.00010705113
  using double precision KISS FFT
  3d grid and FFT values/proc = 4914 1664
Neighbor list info ...
  update every 1 steps, delay 5 steps, check yes
  max neighbors/atom: 2000, page size: 100000
  master list distance cutoff = 12
  ghost atom cutoff = 12
  binsize = 6, bins = 10 13 13
  1 neighbor lists, perpetual/occasional/extra = 1 0 0
  (1) pair lj/charmm/coul/long, perpetual
      attributes: half, newton on
      pair build: half/bin/newton
      stencil: half/bin/3d/newton
      bin: standard
Setting up Verlet run ...
  Unit style    : real
  Current step  : 0
  Time step     : 2
Per MPI rank memory allocation (min/avg/max) = 21.48 | 21.59 | 22.07 Mbytes
---------------- Step        0 ----- CPU =      0.0000 (sec) ----------------
TotEng   =    -25356.2064 KinEng   =     21444.8313 Temp     =       299.0397 
PotEng   =    -46801.0377 E_bond   =      2537.9940 E_angle  =     10921.3742 
E_dihed  =      5211.7865 E_impro  =       213.5116 E_vdwl   =     -2307.8634 
E_coul   =    207025.8927 E_long   =   -270403.7333 Press    =      -149.3301 
Volume   =    307995.0335 
---------------- Step       50 ----- CPU =      1.4512 (sec) ----------------
TotEng   =    -25330.0317 KinEng   =     21501.0005 Temp     =       299.8229 
PotEng   =    -46831.0321 E_bond   =      2471.7035 E_angle  =     10836.5102 
E_dihed  =      5239.6319 E_impro  =       227.1218 E_vdwl   =     -1993.2873 
E_coul   =    206797.6802 E_long   =   -270410.3926 Press    =       237.6571 
Volume   =    308031.6762 
---------------- Step      100 ----- CPU =      2.9751 (sec) ----------------
TotEng   =    -25290.7303 KinEng   =     21591.9084 Temp     =       301.0906 
PotEng   =    -46882.6387 E_bond   =      2567.9807 E_angle  =     10781.9571 
E_dihed  =      5198.7492 E_impro  =       216.7864 E_vdwl   =     -1902.6618 
E_coul   =    206659.5227 E_long   =   -270404.9730 Press    =         6.7406 
Volume   =    308134.2285 
---------------- Step      150 ----- CPU =      4.4735 (sec) ----------------
TotEng   =    -25258.0780 KinEng   =     21529.6642 Temp     =       300.2226 
PotEng   =    -46787.7422 E_bond   =      2556.3465 E_angle  =     10852.7806 
E_dihed  =      5265.2304 E_impro  =       203.0691 E_vdwl   =     -2066.1357 
E_coul   =    206797.4429 E_long   =   -270396.4760 Press    =       251.4739 
Volume   =    308515.2403 
---------------- Step      200 ----- CPU =      6.0103 (sec) ----------------
TotEng   =    -25078.8481 KinEng   =     21571.3566 Temp     =       300.8040 
PotEng   =    -46650.2047 E_bond   =      2488.6957 E_angle  =     11073.4386 
E_dihed  =      5221.7530 E_impro  =       232.8553 E_vdwl   =     -2167.7439 
E_coul   =    206902.9207 E_long   =   -270402.1241 Press    =        20.6682 
Volume   =    308997.5604 
---------------- Step      250 ----- CPU =      7.5336 (sec) ----------------
TotEng   =    -24944.3596 KinEng   =     21546.5625 Temp     =       300.4583 
PotEng   =    -46490.9221 E_bond   =      2542.5409 E_angle  =     11105.5033 
E_dihed  =      5239.6610 E_impro  =       212.3530 E_vdwl   =     -2169.0717 
E_coul   =    206990.2606 E_long   =   -270412.1692 Press    =      -169.9647 
Volume   =    309388.1026 
---------------- Step      300 ----- CPU =      9.0295 (sec) ----------------
TotEng   =    -24999.4135 KinEng   =     21499.4187 Temp     =       299.8009 
PotEng   =    -46498.8322 E_bond   =      2557.8754 E_angle  =     10921.7917 
E_dihed  =      5211.0901 E_impro  =       222.1832 E_vdwl   =     -2220.7199 
E_coul   =    207195.7611 E_long   =   -270386.8138 Press    =      -370.8038 
Volume   =    309663.8078 
---------------- Step      350 ----- CPU =     10.5331 (sec) ----------------
TotEng   =    -25127.9763 KinEng   =     21464.9386 Temp     =       299.3201 
PotEng   =    -46592.9149 E_bond   =      2580.3597 E_angle  =     10952.3359 
E_dihed  =      5250.5193 E_impro  =       212.6558 E_vdwl   =     -2165.1228 
E_coul   =    206978.2755 E_long   =   -270401.9383 Press    =      -337.3334 
Volume   =    309801.8149 
---------------- Step      400 ----- CPU =     12.0782 (sec) ----------------
TotEng   =    -25201.0858 KinEng   =     21424.1114 Temp     =       298.7507 
PotEng   =    -46625.1973 E_bond   =      2525.9342 E_angle  =     10966.9937 
E_dihed  =      5205.9898 E_impro  =       212.5863 E_vdwl   =     -2115.9459 
E_coul   =    206991.5184 E_long   =   -270412.2739 Press    =       249.4151 
Volume   =    309816.5563 
---------------- Step      450 ----- CPU =     13.6215 (sec) ----------------
TotEng   =    -25148.3712 KinEng   =     21454.8505 Temp     =       299.1794 
PotEng   =    -46603.2216 E_bond   =      2501.0139 E_angle  =     10965.2793 
E_dihed  =      5240.8777 E_impro  =       226.1475 E_vdwl   =     -2231.7501 
E_coul   =    207091.6709 E_long   =   -270396.4607 Press    =       182.9051 
Volume   =    309791.8996 
---------------- Step      500 ----- CPU =     15.1269 (sec) ----------------
TotEng   =    -24960.5214 KinEng   =     21624.3270 Temp     =       301.5427 
PotEng   =    -46584.8484 E_bond   =      2566.6978 E_angle  =     10944.9813 
E_dihed  =      5268.0425 E_impro  =       217.6696 E_vdwl   =     -2221.2209 
E_coul   =    207030.9600 E_long   =   -270391.9787 Press    =      -312.2718 
Volume   =    309753.4818 
---------------- Step      550 ----- CPU =     16.6683 (sec) ----------------
TotEng   =    -24893.9139 KinEng   =     21645.7503 Temp     =       301.8414 
PotEng   =    -46539.6641 E_bond   =      2513.9545 E_angle  =     10928.1648 
E_dihed  =      5203.0112 E_impro  =       222.7827 E_vdwl   =     -1979.8796 
E_coul   =    206971.9124 E_long   =   -270399.6102 Press    =       408.4641 
Volume   =    309672.2704 
---------------- Step      600 ----- CPU =     18.1783 (sec) ----------------
TotEng   =    -24978.4541 KinEng   =     21638.6344 Temp     =       301.7422 
PotEng   =    -46617.0885 E_bond   =      2586.1717 E_angle  =     10900.4648 
E_dihed  =      5239.2944 E_impro  =       223.3758 E_vdwl   =     -2155.4039 
E_coul   =    206987.0852 E_long   =   -270398.0765 Press    =        67.2552 
Volume   =    309829.4761 
---------------- Step      650 ----- CPU =     19.7309 (sec) ----------------
TotEng   =    -25230.3372 KinEng   =     21397.8842 Temp     =       298.3850 
PotEng   =    -46628.2214 E_bond   =      2537.4835 E_angle  =     10810.3982 
E_dihed  =      5218.8582 E_impro  =       196.3249 E_vdwl   =     -2177.3942 
E_coul   =    207191.4379 E_long   =   -270405.3299 Press    =      -261.9445 
Volume   =    310047.7128 
---------------- Step      700 ----- CPU =     21.2373 (sec) ----------------
TotEng   =    -25250.3281 KinEng   =     21487.6466 Temp     =       299.6367 
PotEng   =    -46737.9747 E_bond   =      2469.1102 E_angle  =     10936.4958 
E_dihed  =      5210.5486 E_impro  =       205.3066 E_vdwl   =     -2148.5543 
E_coul   =    206994.2353 E_long   =   -270405.1169 Press    =       231.7755 
Volume   =    310233.2114 
---------------- Step      750 ----- CPU =     22.8804 (sec) ----------------
TotEng   =    -25089.0731 KinEng   =     21369.7802 Temp     =       297.9931 
PotEng   =    -46458.8533 E_bond   =      2528.6126 E_angle  =     10975.1256 
E_dihed  =      5249.0320 E_impro  =       211.5188 E_vdwl   =     -2007.5671 
E_coul   =    206989.7109 E_long   =   -270405.2862 Press    =       559.8169 
Volume   =    310238.0887 
---------------- Step      800 ----- CPU =     24.4193 (sec) ----------------
TotEng   =    -24920.1074 KinEng   =     21576.2213 Temp     =       300.8719 
PotEng   =    -46496.3287 E_bond   =      2573.5668 E_angle  =     11113.8330 
E_dihed  =      5238.6385 E_impro  =       235.6526 E_vdwl   =     -2241.6237 
E_coul   =    206970.0990 E_long   =   -270386.4950 Press    =      -444.7533 
Volume   =    310232.5921 
---------------- Step      850 ----- CPU =     25.9298 (sec) ----------------
TotEng   =    -24917.2292 KinEng   =     21719.2317 Temp     =       302.8661 
PotEng   =    -46636.4609 E_bond   =      2549.6302 E_angle  =     10931.8137 
E_dihed  =      5305.7318 E_impro  =       223.5574 E_vdwl   =     -1804.7424 
E_coul   =    206563.1037 E_long   =   -270405.5553 Press    =       209.2316 
Volume   =    310055.2200 
---------------- Step      900 ----- CPU =     27.4447 (sec) ----------------
TotEng   =    -25154.5320 KinEng   =     21447.7454 Temp     =       299.0803 
PotEng   =    -46602.2774 E_bond   =      2562.6116 E_angle  =     10925.9712 
E_dihed  =      5245.0199 E_impro  =       231.0575 E_vdwl   =     -1872.5922 
E_coul   =    206709.7570 E_long   =   -270404.1024 Press    =       589.6575 
Volume   =    309949.1904 
---------------- Step      950 ----- CPU =     28.9950 (sec) ----------------
TotEng   =    -25408.7397 KinEng   =     21361.3684 Temp     =       297.8758 
PotEng   =    -46770.1081 E_bond   =      2514.5608 E_angle  =     10939.4754 
E_dihed  =      5314.0209 E_impro  =       230.1682 E_vdwl   =     -2092.5362 
E_coul   =    206728.9024 E_long   =   -270404.6996 Press    =        97.5246 
Volume   =    309971.8034 
---------------- Step     1000 ----- CPU =     30.5089 (sec) ----------------
TotEng   =    -25408.4603 KinEng   =     21286.8645 Temp     =       296.8369 
PotEng   =    -46695.3248 E_bond   =      2527.6099 E_angle  =     10902.9385 
E_dihed  =      5288.1491 E_impro  =       233.9712 E_vdwl   =     -1881.7006 
E_coul   =    206636.0208 E_long   =   -270402.3137 Press    =        72.5990 
Volume   =    310012.7439 
Loop time of 30.5094 on 16 procs for 1000 steps with 32000 atoms

Performance: 5.664 ns/day, 4.237 hours/ns, 32.777 timesteps/s
97.1% CPU use with 16 MPI tasks x 1 OpenMP threads

MPI task timing breakdown:
Section |  min time  |  avg time  |  max time  |%varavg| %total
---------------------------------------------------------------
Pair    | 19.481     | 20.323     | 21.196     |  10.0 | 66.61
Bond    | 0.72157    | 0.86914    | 1.024      |   8.2 |  2.85
Kspace  | 2.9113     | 3.8097     | 4.5831     |  22.6 | 12.49
Neigh   | 3.8843     | 3.8858     | 3.8875     |   0.1 | 12.74
Comm    | 0.42595    | 0.43863    | 0.45645    |   1.3 |  1.44
Output  | 0.0020886  | 0.0024373  | 0.0074728  |   2.6 |  0.01
Modify  | 1.0782     | 1.1079     | 1.1154     |   0.8 |  3.63
Other   |            | 0.07321    |            |       |  0.24

Nlocal:        2000.00 ave        2036 max        1954 min
Histogram: 1 1 1 3 1 0 2 4 1 2
Nghost:        11833.2 ave       11936 max       11744 min
Histogram: 1 1 0 4 3 3 2 1 0 1
Neighs:        747190.0 ave      776175 max      727905 min
Histogram: 5 0 1 1 3 2 1 2 0 1

Total # of neighbors = 11955040
Ave neighs/atom = 373.59500
Ave special neighs/atom = 7.4318750
Neighbor list builds = 109
Dangerous builds = 0
Total wall time: 0:00:31
